+ 0.1 1 2 cbr 1000 ------- 2 1.0 3.1 0 0
- 0.1 1 2 cbr 1000 ------- 2 1.0 3.1 0 0
+ 0.11 1 2 cbr 1000 ------- 2 1.0 3.1 1 1
- 0.11 1 2 cbr 1000 ------- 2 1.0 3.1 1 1
r 0.114 1 2 cbr 1000 ------- 2 1.0 3.1 0 0
+ 0.114 2 3 cbr 1000 ------- 2 1.0 3.1 0 0
- 0.114 2 3 cbr 1000 ------- 2 1.0 3.1 0 0
+ 0.12 1 2 cbr 1000 ------- 2 1.0 3.1 2 2
- 0.12 1 2 cbr 1000 ------- 2 1.0 3.1 2 2
r 0.124 1 2 cbr 1000 ------- 2 1.0 3.1 1 1
+ 0.124 2 3 cbr 1000 ------- 2 1.0 3.1 1 1
- 0.124 2 3 cbr 1000 ------- 2 1.0 3.1 1 1
+ 0.13 1 2 cbr 1000 ------- 2 1.0 3.1 3 3
- 0.13 1 2 cbr 1000 ------- 2 1.0 3.1 3 3
r 0.134 1 2 cbr 1000 ------- 2 1.0 3.1 2 2
+ 0.134 2 3 cbr 1000 ------- 2 1.0 3.1 2 2
- 0.134 2 3 cbr 1000 ------- 2 1.0 3.1 2 2
r 0.138706 2 3 cbr 1000 ------- 2 1.0 3.1 0 0
+ 0.14 1 2 cbr 1000 ------- 2 1.0 3.1 4 4
- 0.14 1 2 cbr 1000 ------- 2 1.0 3.1 4 4
r 0.144 1 2 cbr 1000 ------- 2 1.0 3.1 3 3
+ 0.144 2 3 cbr 1000 ------- 2 1.0 3.1 3 3
- 0.144 2 3 cbr 1000 ------- 2 1.0 3.1 3 3
r 0.148706 2 3 cbr 1000 ------- 2 1.0 3.1 1 1
+ 0.15 1 2 cbr 1000 ------- 2 1.0 3.1 5 5
- 0.15 1 2 cbr 1000 ------- 2 1.0 3.1 5 5
r 0.154 1 2 cbr 1000 ------- 2 1.0 3.1 4 4
+ 0.154 2 3 cbr 1000 ------- 2 1.0 3.1 4 4
- 0.154 2 3 cbr 1000 ------- 2 1.0 3.1 4 4
r 0.158706 2 3 cbr 1000 ------- 2 1.0 3.1 2 2
+ 0.16 1 2 cbr 1000 ------- 2 1.0 3.1 6 6
- 0.16 1 2 cbr 1000 ------- 2 1.0 3.1 6 6
r 0.164 1 2 cbr 1000 ------- 2 1.0 3.1 5 5
+ 0.164 2 3 cbr 1000 ------- 2 1.0 3.1 5 5
- 0.164 2 3 cbr 1000 ------- 2 1.0 3.1 5 5
r 0.168706 2 3 cbr 1000 ------- 2 1.0 3.1 3 3
+ 0.17 1 2 cbr 1000 ------- 2 1.0 3.1 7 7
- 0.17 1 2 cbr 1000 ------- 2 1.0 3.1 7 7
r 0.174 1 2 cbr 1000 ------- 2 1.0 3.1 6 6
+ 0.174 2 3 cbr 1000 ------- 2 1.0 3.1 6 6
- 0.174 2 3 cbr 1000 ------- 2 1.0 3.1 6 6
r 0.178706 2 3 cbr 1000 ------- 2 1.0 3.1 4 4
+ 0.18 1 2 cbr 1000 ------- 2 1.0 3.1 8 8
- 0.18 1 2 cbr 1000 ------- 2 1.0 3.1 8 8
r 0.184 1 2 cbr 1000 ------- 2 1.0 3.1 7 7
+ 0.184 2 3 cbr 1000 ------- 2 1.0 3.1 7 7
- 0.184 2 3 cbr 1000 ------- 2 1.0 3.1 7 7
r 0.188706 2 3 cbr 1000 ------- 2 1.0 3.1 5 5
+ 0.19 1 2 cbr 1000 ------- 2 1.0 3.1 9 9
- 0.19 1 2 cbr 1000 ------- 2 1.0 3.1 9 9
r 0.194 1 2 cbr 1000 ------- 2 1.0 3.1 8 8
+ 0.194 2 3 cbr 1000 ------- 2 1.0 3.1 8 8
- 0.194 2 3 cbr 1000 ------- 2 1.0 3.1 8 8
r 0.198706 2 3 cbr 1000 ------- 2 1.0 3.1 6 6
+ 0.2 1 2 cbr 1000 ------- 2 1.0 3.1 10 10
- 0.2 1 2 cbr 1000 ------- 2 1.0 3.1 10 10
r 0.204 1 2 cbr 1000 ------- 2 1.0 3.1 9 9
+ 0.204 2 3 cbr 1000 ------- 2 1.0 3.1 9 9
- 0.204 2 3 cbr 1000 ------- 2 1.0 3.1 9 9
r 0.208706 2 3 cbr 1000 ------- 2 1.0 3.1 7 7
+ 0.21 1 2 cbr 1000 ------- 2 1.0 3.1 11 11
- 0.21 1 2 cbr 1000 ------- 2 1.0 3.1 11 11
r 0.214 1 2 cbr 1000 ------- 2 1.0 3.1 10 10
+ 0.214 2 3 cbr 1000 ------- 2 1.0 3.1 10 10
- 0.214 2 3 cbr 1000 ------- 2 1.0 3.1 10 10
r 0.218706 2 3 cbr 1000 ------- 2 1.0 3.1 8 8
+ 0.22 1 2 cbr 1000 ------- 2 1.0 3.1 12 12
- 0.22 1 2 cbr 1000 ------- 2 1.0 3.1 12 12
r 0.224 1 2 cbr 1000 ------- 2 1.0 3.1 11 11
+ 0.224 2 3 cbr 1000 ------- 2 1.0 3.1 11 11
- 0.224 2 3 cbr 1000 ------- 2 1.0 3.1 11 11
r 0.228706 2 3 cbr 1000 ------- 2 1.0 3.1 9 9
+ 0.23 1 2 cbr 1000 ------- 2 1.0 3.1 13 13
- 0.23 1 2 cbr 1000 ------- 2 1.0 3.1 13 13
r 0.234 1 2 cbr 1000 ------- 2 1.0 3.1 12 12
+ 0.234 2 3 cbr 1000 ------- 2 1.0 3.1 12 12
- 0.234 2 3 cbr 1000 ------- 2 1.0 3.1 12 12
r 0.238706 2 3 cbr 1000 ------- 2 1.0 3.1 10 10
+ 0.24 1 2 cbr 1000 ------- 2 1.0 3.1 14 14
- 0.24 1 2 cbr 1000 ------- 2 1.0 3.1 14 14
r 0.244 1 2 cbr 1000 ------- 2 1.0 3.1 13 13
+ 0.244 2 3 cbr 1000 ------- 2 1.0 3.1 13 13
- 0.244 2 3 cbr 1000 ------- 2 1.0 3.1 13 13
r 0.248706 2 3 cbr 1000 ------- 2 1.0 3.1 11 11
+ 0.25 1 2 cbr 1000 ------- 2 1.0 3.1 15 15
- 0.25 1 2 cbr 1000 ------- 2 1.0 3.1 15 15
r 0.254 1 2 cbr 1000 ------- 2 1.0 3.1 14 14
+ 0.254 2 3 cbr 1000 ------- 2 1.0 3.1 14 14
- 0.254 2 3 cbr 1000 ------- 2 1.0 3.1 14 14
r 0.258706 2 3 cbr 1000 ------- 2 1.0 3.1 12 12
+ 0.26 1 2 cbr 1000 ------- 2 1.0 3.1 16 16
- 0.26 1 2 cbr 1000 ------- 2 1.0 3.1 16 16
r 0.264 1 2 cbr 1000 ------- 2 1.0 3.1 15 15
+ 0.264 2 3 cbr 1000 ------- 2 1.0 3.1 15 15
- 0.264 2 3 cbr 1000 ------- 2 1.0 3.1 15 15
r 0.268706 2 3 cbr 1000 ------- 2 1.0 3.1 13 13
+ 0.27 1 2 cbr 1000 ------- 2 1.0 3.1 17 17
- 0.27 1 2 cbr 1000 ------- 2 1.0 3.1 17 17
r 0.274 1 2 cbr 1000 ------- 2 1.0 3.1 16 16
+ 0.274 2 3 cbr 1000 ------- 2 1.0 3.1 16 16
- 0.274 2 3 cbr 1000 ------- 2 1.0 3.1 16 16
r 0.278706 2 3 cbr 1000 ------- 2 1.0 3.1 14 14
+ 0.28 1 2 cbr 1000 ------- 2 1.0 3.1 18 18
- 0.28 1 2 cbr 1000 ------- 2 1.0 3.1 18 18
r 0.284 1 2 cbr 1000 ------- 2 1.0 3.1 17 17
+ 0.284 2 3 cbr 1000 ------- 2 1.0 3.1 17 17
- 0.284 2 3 cbr 1000 ------- 2 1.0 3.1 17 17
r 0.288706 2 3 cbr 1000 ------- 2 1.0 3.1 15 15
+ 0.29 1 2 cbr 1000 ------- 2 1.0 3.1 19 19
- 0.29 1 2 cbr 1000 ------- 2 1.0 3.1 19 19
r 0.294 1 2 cbr 1000 ------- 2 1.0 3.1 18 18
+ 0.294 2 3 cbr 1000 ------- 2 1.0 3.1 18 18
- 0.294 2 3 cbr 1000 ------- 2 1.0 3.1 18 18
r 0.298706 2 3 cbr 1000 ------- 2 1.0 3.1 16 16
+ 0.3 1 2 cbr 1000 ------- 2 1.0 3.1 20 20
- 0.3 1 2 cbr 1000 ------- 2 1.0 3.1 20 20
r 0.304 1 2 cbr 1000 ------- 2 1.0 3.1 19 19
+ 0.304 2 3 cbr 1000 ------- 2 1.0 3.1 19 19
- 0.304 2 3 cbr 1000 ------- 2 1.0 3.1 19 19
r 0.308706 2 3 cbr 1000 ------- 2 1.0 3.1 17 17
+ 0.31 1 2 cbr 1000 ------- 2 1.0 3.1 21 21
- 0.31 1 2 cbr 1000 ------- 2 1.0 3.1 21 21
r 0.314 1 2 cbr 1000 ------- 2 1.0 3.1 20 20
+ 0.314 2 3 cbr 1000 ------- 2 1.0 3.1 20 20
- 0.314 2 3 cbr 1000 ------- 2 1.0 3.1 20 20
r 0.318706 2 3 cbr 1000 ------- 2 1.0 3.1 18 18
+ 0.32 1 2 cbr 1000 ------- 2 1.0 3.1 22 22
- 0.32 1 2 cbr 1000 ------- 2 1.0 3.1 22 22
r 0.324 1 2 cbr 1000 ------- 2 1.0 3.1 21 21
+ 0.324 2 3 cbr 1000 ------- 2 1.0 3.1 21 21
- 0.324 2 3 cbr 1000 ------- 2 1.0 3.1 21 21
r 0.328706 2 3 cbr 1000 ------- 2 1.0 3.1 19 19
+ 0.33 1 2 cbr 1000 ------- 2 1.0 3.1 23 23
- 0.33 1 2 cbr 1000 ------- 2 1.0 3.1 23 23
r 0.334 1 2 cbr 1000 ------- 2 1.0 3.1 22 22
+ 0.334 2 3 cbr 1000 ------- 2 1.0 3.1 22 22
- 0.334 2 3 cbr 1000 ------- 2 1.0 3.1 22 22
r 0.338706 2 3 cbr 1000 ------- 2 1.0 3.1 20 20
+ 0.34 1 2 cbr 1000 ------- 2 1.0 3.1 24 24
- 0.34 1 2 cbr 1000 ------- 2 1.0 3.1 24 24
r 0.344 1 2 cbr 1000 ------- 2 1.0 3.1 23 23
+ 0.344 2 3 cbr 1000 ------- 2 1.0 3.1 23 23
- 0.344 2 3 cbr 1000 ------- 2 1.0 3.1 23 23
r 0.348706 2 3 cbr 1000 ------- 2 1.0 3.1 21 21
+ 0.35 1 2 cbr 1000 ------- 2 1.0 3.1 25 25
- 0.35 1 2 cbr 1000 ------- 2 1.0 3.1 25 25
r 0.354 1 2 cbr 1000 ------- 2 1.0 3.1 24 24
+ 0.354 2 3 cbr 1000 ------- 2 1.0 3.1 24 24
- 0.354 2 3 cbr 1000 ------- 2 1.0 3.1 24 24
r 0.358706 2 3 cbr 1000 ------- 2 1.0 3.1 22 22
+ 0.36 1 2 cbr 1000 ------- 2 1.0 3.1 26 26
- 0.36 1 2 cbr 1000 ------- 2 1.0 3.1 26 26
r 0.364 1 2 cbr 1000 ------- 2 1.0 3.1 25 25
+ 0.364 2 3 cbr 1000 ------- 2 1.0 3.1 25 25
- 0.364 2 3 cbr 1000 ------- 2 1.0 3.1 25 25
r 0.368706 2 3 cbr 1000 ------- 2 1.0 3.1 23 23
+ 0.37 1 2 cbr 1000 ------- 2 1.0 3.1 27 27
- 0.37 1 2 cbr 1000 ------- 2 1.0 3.1 27 27
r 0.374 1 2 cbr 1000 ------- 2 1.0 3.1 26 26
+ 0.374 2 3 cbr 1000 ------- 2 1.0 3.1 26 26
- 0.374 2 3 cbr 1000 ------- 2 1.0 3.1 26 26
r 0.378706 2 3 cbr 1000 ------- 2 1.0 3.1 24 24
+ 0.38 1 2 cbr 1000 ------- 2 1.0 3.1 28 28
- 0.38 1 2 cbr 1000 ------- 2 1.0 3.1 28 28
r 0.384 1 2 cbr 1000 ------- 2 1.0 3.1 27 27
+ 0.384 2 3 cbr 1000 ------- 2 1.0 3.1 27 27
- 0.384 2 3 cbr 1000 ------- 2 1.0 3.1 27 27
r 0.388706 2 3 cbr 1000 ------- 2 1.0 3.1 25 25
+ 0.39 1 2 cbr 1000 ------- 2 1.0 3.1 29 29
- 0.39 1 2 cbr 1000 ------- 2 1.0 3.1 29 29
r 0.394 1 2 cbr 1000 ------- 2 1.0 3.1 28 28
+ 0.394 2 3 cbr 1000 ------- 2 1.0 3.1 28 28
- 0.394 2 3 cbr 1000 ------- 2 1.0 3.1 28 28
r 0.398706 2 3 cbr 1000 ------- 2 1.0 3.1 26 26
+ 0.4 1 2 cbr 1000 ------- 2 1.0 3.1 30 30
- 0.4 1 2 cbr 1000 ------- 2 1.0 3.1 30 30
r 0.404 1 2 cbr 1000 ------- 2 1.0 3.1 29 29
+ 0.404 2 3 cbr 1000 ------- 2 1.0 3.1 29 29
- 0.404 2 3 cbr 1000 ------- 2 1.0 3.1 29 29
r 0.408706 2 3 cbr 1000 ------- 2 1.0 3.1 27 27
+ 0.41 1 2 cbr 1000 ------- 2 1.0 3.1 31 31
- 0.41 1 2 cbr 1000 ------- 2 1.0 3.1 31 31
r 0.414 1 2 cbr 1000 ------- 2 1.0 3.1 30 30
+ 0.414 2 3 cbr 1000 ------- 2 1.0 3.1 30 30
- 0.414 2 3 cbr 1000 ------- 2 1.0 3.1 30 30
r 0.418706 2 3 cbr 1000 ------- 2 1.0 3.1 28 28
+ 0.42 1 2 cbr 1000 ------- 2 1.0 3.1 32 32
- 0.42 1 2 cbr 1000 ------- 2 1.0 3.1 32 32
r 0.424 1 2 cbr 1000 ------- 2 1.0 3.1 31 31
+ 0.424 2 3 cbr 1000 ------- 2 1.0 3.1 31 31
- 0.424 2 3 cbr 1000 ------- 2 1.0 3.1 31 31
r 0.428706 2 3 cbr 1000 ------- 2 1.0 3.1 29 29
+ 0.43 1 2 cbr 1000 ------- 2 1.0 3.1 33 33
- 0.43 1 2 cbr 1000 ------- 2 1.0 3.1 33 33
r 0.434 1 2 cbr 1000 ------- 2 1.0 3.1 32 32
+ 0.434 2 3 cbr 1000 ------- 2 1.0 3.1 32 32
- 0.434 2 3 cbr 1000 ------- 2 1.0 3.1 32 32
r 0.438706 2 3 cbr 1000 ------- 2 1.0 3.1 30 30
+ 0.44 1 2 cbr 1000 ------- 2 1.0 3.1 34 34
- 0.44 1 2 cbr 1000 ------- 2 1.0 3.1 34 34
r 0.444 1 2 cbr 1000 ------- 2 1.0 3.1 33 33
+ 0.444 2 3 cbr 1000 ------- 2 1.0 3.1 33 33
- 0.444 2 3 cbr 1000 ------- 2 1.0 3.1 33 33
r 0.448706 2 3 cbr 1000 ------- 2 1.0 3.1 31 31
+ 0.45 1 2 cbr 1000 ------- 2 1.0 3.1 35 35
- 0.45 1 2 cbr 1000 ------- 2 1.0 3.1 35 35
r 0.454 1 2 cbr 1000 ------- 2 1.0 3.1 34 34
+ 0.454 2 3 cbr 1000 ------- 2 1.0 3.1 34 34
- 0.454 2 3 cbr 1000 ------- 2 1.0 3.1 34 34
r 0.458706 2 3 cbr 1000 ------- 2 1.0 3.1 32 32
+ 0.46 1 2 cbr 1000 ------- 2 1.0 3.1 36 36
- 0.46 1 2 cbr 1000 ------- 2 1.0 3.1 36 36
r 0.464 1 2 cbr 1000 ------- 2 1.0 3.1 35 35
+ 0.464 2 3 cbr 1000 ------- 2 1.0 3.1 35 35
- 0.464 2 3 cbr 1000 ------- 2 1.0 3.1 35 35
r 0.468706 2 3 cbr 1000 ------- 2 1.0 3.1 33 33
+ 0.47 1 2 cbr 1000 ------- 2 1.0 3.1 37 37
- 0.47 1 2 cbr 1000 ------- 2 1.0 3.1 37 37
r 0.474 1 2 cbr 1000 ------- 2 1.0 3.1 36 36
+ 0.474 2 3 cbr 1000 ------- 2 1.0 3.1 36 36
- 0.474 2 3 cbr 1000 ------- 2 1.0 3.1 36 36
r 0.478706 2 3 cbr 1000 ------- 2 1.0 3.1 34 34
+ 0.48 1 2 cbr 1000 ------- 2 1.0 3.1 38 38
- 0.48 1 2 cbr 1000 ------- 2 1.0 3.1 38 38
r 0.484 1 2 cbr 1000 ------- 2 1.0 3.1 37 37
+ 0.484 2 3 cbr 1000 ------- 2 1.0 3.1 37 37
- 0.484 2 3 cbr 1000 ------- 2 1.0 3.1 37 37
r 0.488706 2 3 cbr 1000 ------- 2 1.0 3.1 35 35
+ 0.49 1 2 cbr 1000 ------- 2 1.0 3.1 39 39
- 0.49 1 2 cbr 1000 ------- 2 1.0 3.1 39 39
r 0.494 1 2 cbr 1000 ------- 2 1.0 3.1 38 38
+ 0.494 2 3 cbr 1000 ------- 2 1.0 3.1 38 38
- 0.494 2 3 cbr 1000 ------- 2 1.0 3.1 38 38
r 0.498706 2 3 cbr 1000 ------- 2 1.0 3.1 36 36
+ 0.5 1 2 cbr 1000 ------- 2 1.0 3.1 40 40
- 0.5 1 2 cbr 1000 ------- 2 1.0 3.1 40 40
r 0.504 1 2 cbr 1000 ------- 2 1.0 3.1 39 39
+ 0.504 2 3 cbr 1000 ------- 2 1.0 3.1 39 39
- 0.504 2 3 cbr 1000 ------- 2 1.0 3.1 39 39
r 0.508706 2 3 cbr 1000 ------- 2 1.0 3.1 37 37
+ 0.51 1 2 cbr 1000 ------- 2 1.0 3.1 41 41
- 0.51 1 2 cbr 1000 ------- 2 1.0 3.1 41 41
r 0.514 1 2 cbr 1000 ------- 2 1.0 3.1 40 40
+ 0.514 2 3 cbr 1000 ------- 2 1.0 3.1 40 40
- 0.514 2 3 cbr 1000 ------- 2 1.0 3.1 40 40
r 0.518706 2 3 cbr 1000 ------- 2 1.0 3.1 38 38
+ 0.52 1 2 cbr 1000 ------- 2 1.0 3.1 42 42
- 0.52 1 2 cbr 1000 ------- 2 1.0 3.1 42 42
r 0.524 1 2 cbr 1000 ------- 2 1.0 3.1 41 41
+ 0.524 2 3 cbr 1000 ------- 2 1.0 3.1 41 41
- 0.524 2 3 cbr 1000 ------- 2 1.0 3.1 41 41
r 0.528706 2 3 cbr 1000 ------- 2 1.0 3.1 39 39
+ 0.53 1 2 cbr 1000 ------- 2 1.0 3.1 43 43
- 0.53 1 2 cbr 1000 ------- 2 1.0 3.1 43 43
r 0.534 1 2 cbr 1000 ------- 2 1.0 3.1 42 42
+ 0.534 2 3 cbr 1000 ------- 2 1.0 3.1 42 42
- 0.534 2 3 cbr 1000 ------- 2 1.0 3.1 42 42
r 0.538706 2 3 cbr 1000 ------- 2 1.0 3.1 40 40
+ 0.54 1 2 cbr 1000 ------- 2 1.0 3.1 44 44
- 0.54 1 2 cbr 1000 ------- 2 1.0 3.1 44 44
r 0.544 1 2 cbr 1000 ------- 2 1.0 3.1 43 43
+ 0.544 2 3 cbr 1000 ------- 2 1.0 3.1 43 43
- 0.544 2 3 cbr 1000 ------- 2 1.0 3.1 43 43
r 0.548706 2 3 cbr 1000 ------- 2 1.0 3.1 41 41
+ 0.55 1 2 cbr 1000 ------- 2 1.0 3.1 45 45
- 0.55 1 2 cbr 1000 ------- 2 1.0 3.1 45 45
r 0.554 1 2 cbr 1000 ------- 2 1.0 3.1 44 44
+ 0.554 2 3 cbr 1000 ------- 2 1.0 3.1 44 44
- 0.554 2 3 cbr 1000 ------- 2 1.0 3.1 44 44
r 0.558706 2 3 cbr 1000 ------- 2 1.0 3.1 42 42
+ 0.56 1 2 cbr 1000 ------- 2 1.0 3.1 46 46
- 0.56 1 2 cbr 1000 ------- 2 1.0 3.1 46 46
r 0.564 1 2 cbr 1000 ------- 2 1.0 3.1 45 45
+ 0.564 2 3 cbr 1000 ------- 2 1.0 3.1 45 45
- 0.564 2 3 cbr 1000 ------- 2 1.0 3.1 45 45
r 0.568706 2 3 cbr 1000 ------- 2 1.0 3.1 43 43
+ 0.57 1 2 cbr 1000 ------- 2 1.0 3.1 47 47
- 0.57 1 2 cbr 1000 ------- 2 1.0 3.1 47 47
r 0.574 1 2 cbr 1000 ------- 2 1.0 3.1 46 46
+ 0.574 2 3 cbr 1000 ------- 2 1.0 3.1 46 46
- 0.574 2 3 cbr 1000 ------- 2 1.0 3.1 46 46
r 0.578706 2 3 cbr 1000 ------- 2 1.0 3.1 44 44
+ 0.58 1 2 cbr 1000 ------- 2 1.0 3.1 48 48
- 0.58 1 2 cbr 1000 ------- 2 1.0 3.1 48 48
r 0.584 1 2 cbr 1000 ------- 2 1.0 3.1 47 47
+ 0.584 2 3 cbr 1000 ------- 2 1.0 3.1 47 47
- 0.584 2 3 cbr 1000 ------- 2 1.0 3.1 47 47
r 0.588706 2 3 cbr 1000 ------- 2 1.0 3.1 45 45
+ 0.59 1 2 cbr 1000 ------- 2 1.0 3.1 49 49
- 0.59 1 2 cbr 1000 ------- 2 1.0 3.1 49 49
r 0.594 1 2 cbr 1000 ------- 2 1.0 3.1 48 48
+ 0.594 2 3 cbr 1000 ------- 2 1.0 3.1 48 48
- 0.594 2 3 cbr 1000 ------- 2 1.0 3.1 48 48
r 0.598706 2 3 cbr 1000 ------- 2 1.0 3.1 46 46
+ 0.6 1 2 cbr 1000 ------- 2 1.0 3.1 50 50
- 0.6 1 2 cbr 1000 ------- 2 1.0 3.1 50 50
r 0.604 1 2 cbr 1000 ------- 2 1.0 3.1 49 49
+ 0.604 2 3 cbr 1000 ------- 2 1.0 3.1 49 49
- 0.604 2 3 cbr 1000 ------- 2 1.0 3.1 49 49
r 0.608706 2 3 cbr 1000 ------- 2 1.0 3.1 47 47
+ 0.61 1 2 cbr 1000 ------- 2 1.0 3.1 51 51
- 0.61 1 2 cbr 1000 ------- 2 1.0 3.1 51 51
r 0.614 1 2 cbr 1000 ------- 2 1.0 3.1 50 50
+ 0.614 2 3 cbr 1000 ------- 2 1.0 3.1 50 50
- 0.614 2 3 cbr 1000 ------- 2 1.0 3.1 50 50
r 0.618706 2 3 cbr 1000 ------- 2 1.0 3.1 48 48
+ 0.62 1 2 cbr 1000 ------- 2 1.0 3.1 52 52
- 0.62 1 2 cbr 1000 ------- 2 1.0 3.1 52 52
r 0.624 1 2 cbr 1000 ------- 2 1.0 3.1 51 51
+ 0.624 2 3 cbr 1000 ------- 2 1.0 3.1 51 51
- 0.624 2 3 cbr 1000 ------- 2 1.0 3.1 51 51
r 0.628706 2 3 cbr 1000 ------- 2 1.0 3.1 49 49
+ 0.63 1 2 cbr 1000 ------- 2 1.0 3.1 53 53
- 0.63 1 2 cbr 1000 ------- 2 1.0 3.1 53 53
r 0.634 1 2 cbr 1000 ------- 2 1.0 3.1 52 52
+ 0.634 2 3 cbr 1000 ------- 2 1.0 3.1 52 52
- 0.634 2 3 cbr 1000 ------- 2 1.0 3.1 52 52
r 0.638706 2 3 cbr 1000 ------- 2 1.0 3.1 50 50
+ 0.64 1 2 cbr 1000 ------- 2 1.0 3.1 54 54
- 0.64 1 2 cbr 1000 ------- 2 1.0 3.1 54 54
r 0.644 1 2 cbr 1000 ------- 2 1.0 3.1 53 53
+ 0.644 2 3 cbr 1000 ------- 2 1.0 3.1 53 53
- 0.644 2 3 cbr 1000 ------- 2 1.0 3.1 53 53
r 0.648706 2 3 cbr 1000 ------- 2 1.0 3.1 51 51
+ 0.65 1 2 cbr 1000 ------- 2 1.0 3.1 55 55
- 0.65 1 2 cbr 1000 ------- 2 1.0 3.1 55 55
r 0.654 1 2 cbr 1000 ------- 2 1.0 3.1 54 54
+ 0.654 2 3 cbr 1000 ------- 2 1.0 3.1 54 54
- 0.654 2 3 cbr 1000 ------- 2 1.0 3.1 54 54
r 0.658706 2 3 cbr 1000 ------- 2 1.0 3.1 52 52
+ 0.66 1 2 cbr 1000 ------- 2 1.0 3.1 56 56
- 0.66 1 2 cbr 1000 ------- 2 1.0 3.1 56 56
r 0.664 1 2 cbr 1000 ------- 2 1.0 3.1 55 55
+ 0.664 2 3 cbr 1000 ------- 2 1.0 3.1 55 55
- 0.664 2 3 cbr 1000 ------- 2 1.0 3.1 55 55
r 0.668706 2 3 cbr 1000 ------- 2 1.0 3.1 53 53
+ 0.67 1 2 cbr 1000 ------- 2 1.0 3.1 57 57
- 0.67 1 2 cbr 1000 ------- 2 1.0 3.1 57 57
r 0.674 1 2 cbr 1000 ------- 2 1.0 3.1 56 56
+ 0.674 2 3 cbr 1000 ------- 2 1.0 3.1 56 56
- 0.674 2 3 cbr 1000 ------- 2 1.0 3.1 56 56
r 0.678706 2 3 cbr 1000 ------- 2 1.0 3.1 54 54
+ 0.68 1 2 cbr 1000 ------- 2 1.0 3.1 58 58
- 0.68 1 2 cbr 1000 ------- 2 1.0 3.1 58 58
r 0.684 1 2 cbr 1000 ------- 2 1.0 3.1 57 57
+ 0.684 2 3 cbr 1000 ------- 2 1.0 3.1 57 57
- 0.684 2 3 cbr 1000 ------- 2 1.0 3.1 57 57
r 0.688706 2 3 cbr 1000 ------- 2 1.0 3.1 55 55
+ 0.69 1 2 cbr 1000 ------- 2 1.0 3.1 59 59
- 0.69 1 2 cbr 1000 ------- 2 1.0 3.1 59 59
r 0.694 1 2 cbr 1000 ------- 2 1.0 3.1 58 58
+ 0.694 2 3 cbr 1000 ------- 2 1.0 3.1 58 58
- 0.694 2 3 cbr 1000 ------- 2 1.0 3.1 58 58
r 0.698706 2 3 cbr 1000 ------- 2 1.0 3.1 56 56
+ 0.7 1 2 cbr 1000 ------- 2 1.0 3.1 60 60
- 0.7 1 2 cbr 1000 ------- 2 1.0 3.1 60 60
r 0.704 1 2 cbr 1000 ------- 2 1.0 3.1 59 59
+ 0.704 2 3 cbr 1000 ------- 2 1.0 3.1 59 59
- 0.704 2 3 cbr 1000 ------- 2 1.0 3.1 59 59
r 0.708706 2 3 cbr 1000 ------- 2 1.0 3.1 57 57
+ 0.71 1 2 cbr 1000 ------- 2 1.0 3.1 61 61
- 0.71 1 2 cbr 1000 ------- 2 1.0 3.1 61 61
r 0.714 1 2 cbr 1000 ------- 2 1.0 3.1 60 60
+ 0.714 2 3 cbr 1000 ------- 2 1.0 3.1 60 60
- 0.714 2 3 cbr 1000 ------- 2 1.0 3.1 60 60
r 0.718706 2 3 cbr 1000 ------- 2 1.0 3.1 58 58
+ 0.72 1 2 cbr 1000 ------- 2 1.0 3.1 62 62
- 0.72 1 2 cbr 1000 ------- 2 1.0 3.1 62 62
r 0.724 1 2 cbr 1000 ------- 2 1.0 3.1 61 61
+ 0.724 2 3 cbr 1000 ------- 2 1.0 3.1 61 61
- 0.724 2 3 cbr 1000 ------- 2 1.0 3.1 61 61
r 0.728706 2 3 cbr 1000 ------- 2 1.0 3.1 59 59
+ 0.73 1 2 cbr 1000 ------- 2 1.0 3.1 63 63
- 0.73 1 2 cbr 1000 ------- 2 1.0 3.1 63 63
r 0.734 1 2 cbr 1000 ------- 2 1.0 3.1 62 62
+ 0.734 2 3 cbr 1000 ------- 2 1.0 3.1 62 62
- 0.734 2 3 cbr 1000 ------- 2 1.0 3.1 62 62
r 0.738706 2 3 cbr 1000 ------- 2 1.0 3.1 60 60
+ 0.74 1 2 cbr 1000 ------- 2 1.0 3.1 64 64
- 0.74 1 2 cbr 1000 ------- 2 1.0 3.1 64 64
r 0.744 1 2 cbr 1000 ------- 2 1.0 3.1 63 63
+ 0.744 2 3 cbr 1000 ------- 2 1.0 3.1 63 63
- 0.744 2 3 cbr 1000 ------- 2 1.0 3.1 63 63
r 0.748706 2 3 cbr 1000 ------- 2 1.0 3.1 61 61
+ 0.75 1 2 cbr 1000 ------- 2 1.0 3.1 65 65
- 0.75 1 2 cbr 1000 ------- 2 1.0 3.1 65 65
r 0.754 1 2 cbr 1000 ------- 2 1.0 3.1 64 64
+ 0.754 2 3 cbr 1000 ------- 2 1.0 3.1 64 64
- 0.754 2 3 cbr 1000 ------- 2 1.0 3.1 64 64
r 0.758706 2 3 cbr 1000 ------- 2 1.0 3.1 62 62
+ 0.76 1 2 cbr 1000 ------- 2 1.0 3.1 66 66
- 0.76 1 2 cbr 1000 ------- 2 1.0 3.1 66 66
r 0.764 1 2 cbr 1000 ------- 2 1.0 3.1 65 65
+ 0.764 2 3 cbr 1000 ------- 2 1.0 3.1 65 65
- 0.764 2 3 cbr 1000 ------- 2 1.0 3.1 65 65
r 0.768706 2 3 cbr 1000 ------- 2 1.0 3.1 63 63
+ 0.77 1 2 cbr 1000 ------- 2 1.0 3.1 67 67
- 0.77 1 2 cbr 1000 ------- 2 1.0 3.1 67 67
r 0.774 1 2 cbr 1000 ------- 2 1.0 3.1 66 66
+ 0.774 2 3 cbr 1000 ------- 2 1.0 3.1 66 66
- 0.774 2 3 cbr 1000 ------- 2 1.0 3.1 66 66
r 0.778706 2 3 cbr 1000 ------- 2 1.0 3.1 64 64
+ 0.78 1 2 cbr 1000 ------- 2 1.0 3.1 68 68
- 0.78 1 2 cbr 1000 ------- 2 1.0 3.1 68 68
r 0.784 1 2 cbr 1000 ------- 2 1.0 3.1 67 67
+ 0.784 2 3 cbr 1000 ------- 2 1.0 3.1 67 67
- 0.784 2 3 cbr 1000 ------- 2 1.0 3.1 67 67
r 0.788706 2 3 cbr 1000 ------- 2 1.0 3.1 65 65
+ 0.79 1 2 cbr 1000 ------- 2 1.0 3.1 69 69
- 0.79 1 2 cbr 1000 ------- 2 1.0 3.1 69 69
r 0.794 1 2 cbr 1000 ------- 2 1.0 3.1 68 68
+ 0.794 2 3 cbr 1000 ------- 2 1.0 3.1 68 68
- 0.794 2 3 cbr 1000 ------- 2 1.0 3.1 68 68
r 0.798706 2 3 cbr 1000 ------- 2 1.0 3.1 66 66
+ 0.8 1 2 cbr 1000 ------- 2 1.0 3.1 70 70
- 0.8 1 2 cbr 1000 ------- 2 1.0 3.1 70 70
r 0.804 1 2 cbr 1000 ------- 2 1.0 3.1 69 69
+ 0.804 2 3 cbr 1000 ------- 2 1.0 3.1 69 69
- 0.804 2 3 cbr 1000 ------- 2 1.0 3.1 69 69
r 0.808706 2 3 cbr 1000 ------- 2 1.0 3.1 67 67
+ 0.81 1 2 cbr 1000 ------- 2 1.0 3.1 71 71
- 0.81 1 2 cbr 1000 ------- 2 1.0 3.1 71 71
r 0.814 1 2 cbr 1000 ------- 2 1.0 3.1 70 70
+ 0.814 2 3 cbr 1000 ------- 2 1.0 3.1 70 70
- 0.814 2 3 cbr 1000 ------- 2 1.0 3.1 70 70
r 0.818706 2 3 cbr 1000 ------- 2 1.0 3.1 68 68
+ 0.82 1 2 cbr 1000 ------- 2 1.0 3.1 72 72
- 0.82 1 2 cbr 1000 ------- 2 1.0 3.1 72 72
r 0.824 1 2 cbr 1000 ------- 2 1.0 3.1 71 71
+ 0.824 2 3 cbr 1000 ------- 2 1.0 3.1 71 71
- 0.824 2 3 cbr 1000 ------- 2 1.0 3.1 71 71
r 0.828706 2 3 cbr 1000 ------- 2 1.0 3.1 69 69
+ 0.83 1 2 cbr 1000 ------- 2 1.0 3.1 73 73
- 0.83 1 2 cbr 1000 ------- 2 1.0 3.1 73 73
r 0.834 1 2 cbr 1000 ------- 2 1.0 3.1 72 72
+ 0.834 2 3 cbr 1000 ------- 2 1.0 3.1 72 72
- 0.834 2 3 cbr 1000 ------- 2 1.0 3.1 72 72
r 0.838706 2 3 cbr 1000 ------- 2 1.0 3.1 70 70
+ 0.84 1 2 cbr 1000 ------- 2 1.0 3.1 74 74
- 0.84 1 2 cbr 1000 ------- 2 1.0 3.1 74 74
r 0.844 1 2 cbr 1000 ------- 2 1.0 3.1 73 73
+ 0.844 2 3 cbr 1000 ------- 2 1.0 3.1 73 73
- 0.844 2 3 cbr 1000 ------- 2 1.0 3.1 73 73
r 0.848706 2 3 cbr 1000 ------- 2 1.0 3.1 71 71
+ 0.85 1 2 cbr 1000 ------- 2 1.0 3.1 75 75
- 0.85 1 2 cbr 1000 ------- 2 1.0 3.1 75 75
r 0.854 1 2 cbr 1000 ------- 2 1.0 3.1 74 74
+ 0.854 2 3 cbr 1000 ------- 2 1.0 3.1 74 74
- 0.854 2 3 cbr 1000 ------- 2 1.0 3.1 74 74
r 0.858706 2 3 cbr 1000 ------- 2 1.0 3.1 72 72
+ 0.86 1 2 cbr 1000 ------- 2 1.0 3.1 76 76
- 0.86 1 2 cbr 1000 ------- 2 1.0 3.1 76 76
r 0.864 1 2 cbr 1000 ------- 2 1.0 3.1 75 75
+ 0.864 2 3 cbr 1000 ------- 2 1.0 3.1 75 75
- 0.864 2 3 cbr 1000 ------- 2 1.0 3.1 75 75
r 0.868706 2 3 cbr 1000 ------- 2 1.0 3.1 73 73
+ 0.87 1 2 cbr 1000 ------- 2 1.0 3.1 77 77
- 0.87 1 2 cbr 1000 ------- 2 1.0 3.1 77 77
r 0.874 1 2 cbr 1000 ------- 2 1.0 3.1 76 76
+ 0.874 2 3 cbr 1000 ------- 2 1.0 3.1 76 76
- 0.874 2 3 cbr 1000 ------- 2 1.0 3.1 76 76
r 0.878706 2 3 cbr 1000 ------- 2 1.0 3.1 74 74
+ 0.88 1 2 cbr 1000 ------- 2 1.0 3.1 78 78
- 0.88 1 2 cbr 1000 ------- 2 1.0 3.1 78 78
r 0.884 1 2 cbr 1000 ------- 2 1.0 3.1 77 77
+ 0.884 2 3 cbr 1000 ------- 2 1.0 3.1 77 77
- 0.884 2 3 cbr 1000 ------- 2 1.0 3.1 77 77
r 0.888706 2 3 cbr 1000 ------- 2 1.0 3.1 75 75
+ 0.89 1 2 cbr 1000 ------- 2 1.0 3.1 79 79
- 0.89 1 2 cbr 1000 ------- 2 1.0 3.1 79 79
r 0.894 1 2 cbr 1000 ------- 2 1.0 3.1 78 78
+ 0.894 2 3 cbr 1000 ------- 2 1.0 3.1 78 78
- 0.894 2 3 cbr 1000 ------- 2 1.0 3.1 78 78
r 0.898706 2 3 cbr 1000 ------- 2 1.0 3.1 76 76
+ 0.9 1 2 cbr 1000 ------- 2 1.0 3.1 80 80
- 0.9 1 2 cbr 1000 ------- 2 1.0 3.1 80 80
r 0.904 1 2 cbr 1000 ------- 2 1.0 3.1 79 79
+ 0.904 2 3 cbr 1000 ------- 2 1.0 3.1 79 79
- 0.904 2 3 cbr 1000 ------- 2 1.0 3.1 79 79
r 0.908706 2 3 cbr 1000 ------- 2 1.0 3.1 77 77
+ 0.91 1 2 cbr 1000 ------- 2 1.0 3.1 81 81
- 0.91 1 2 cbr 1000 ------- 2 1.0 3.1 81 81
r 0.914 1 2 cbr 1000 ------- 2 1.0 3.1 80 80
+ 0.914 2 3 cbr 1000 ------- 2 1.0 3.1 80 80
- 0.914 2 3 cbr 1000 ------- 2 1.0 3.1 80 80
r 0.918706 2 3 cbr 1000 ------- 2 1.0 3.1 78 78
+ 0.92 1 2 cbr 1000 ------- 2 1.0 3.1 82 82
- 0.92 1 2 cbr 1000 ------- 2 1.0 3.1 82 82
r 0.924 1 2 cbr 1000 ------- 2 1.0 3.1 81 81
+ 0.924 2 3 cbr 1000 ------- 2 1.0 3.1 81 81
- 0.924 2 3 cbr 1000 ------- 2 1.0 3.1 81 81
r 0.928706 2 3 cbr 1000 ------- 2 1.0 3.1 79 79
+ 0.93 1 2 cbr 1000 ------- 2 1.0 3.1 83 83
- 0.93 1 2 cbr 1000 ------- 2 1.0 3.1 83 83
r 0.934 1 2 cbr 1000 ------- 2 1.0 3.1 82 82
+ 0.934 2 3 cbr 1000 ------- 2 1.0 3.1 82 82
- 0.934 2 3 cbr 1000 ------- 2 1.0 3.1 82 82
r 0.938706 2 3 cbr 1000 ------- 2 1.0 3.1 80 80
+ 0.94 1 2 cbr 1000 ------- 2 1.0 3.1 84 84
- 0.94 1 2 cbr 1000 ------- 2 1.0 3.1 84 84
r 0.944 1 2 cbr 1000 ------- 2 1.0 3.1 83 83
+ 0.944 2 3 cbr 1000 ------- 2 1.0 3.1 83 83
- 0.944 2 3 cbr 1000 ------- 2 1.0 3.1 83 83
r 0.948706 2 3 cbr 1000 ------- 2 1.0 3.1 81 81
+ 0.95 1 2 cbr 1000 ------- 2 1.0 3.1 85 85
- 0.95 1 2 cbr 1000 ------- 2 1.0 3.1 85 85
r 0.954 1 2 cbr 1000 ------- 2 1.0 3.1 84 84
+ 0.954 2 3 cbr 1000 ------- 2 1.0 3.1 84 84
- 0.954 2 3 cbr 1000 ------- 2 1.0 3.1 84 84
r 0.958706 2 3 cbr 1000 ------- 2 1.0 3.1 82 82
+ 0.96 1 2 cbr 1000 ------- 2 1.0 3.1 86 86
- 0.96 1 2 cbr 1000 ------- 2 1.0 3.1 86 86
r 0.964 1 2 cbr 1000 ------- 2 1.0 3.1 85 85
+ 0.964 2 3 cbr 1000 ------- 2 1.0 3.1 85 85
- 0.964 2 3 cbr 1000 ------- 2 1.0 3.1 85 85
r 0.968706 2 3 cbr 1000 ------- 2 1.0 3.1 83 83
+ 0.97 1 2 cbr 1000 ------- 2 1.0 3.1 87 87
- 0.97 1 2 cbr 1000 ------- 2 1.0 3.1 87 87
r 0.974 1 2 cbr 1000 ------- 2 1.0 3.1 86 86
+ 0.974 2 3 cbr 1000 ------- 2 1.0 3.1 86 86
- 0.974 2 3 cbr 1000 ------- 2 1.0 3.1 86 86
r 0.978706 2 3 cbr 1000 ------- 2 1.0 3.1 84 84
+ 0.98 1 2 cbr 1000 ------- 2 1.0 3.1 88 88
- 0.98 1 2 cbr 1000 ------- 2 1.0 3.1 88 88
r 0.984 1 2 cbr 1000 ------- 2 1.0 3.1 87 87
+ 0.984 2 3 cbr 1000 ------- 2 1.0 3.1 87 87
- 0.984 2 3 cbr 1000 ------- 2 1.0 3.1 87 87
r 0.988706 2 3 cbr 1000 ------- 2 1.0 3.1 85 85
+ 0.99 1 2 cbr 1000 ------- 2 1.0 3.1 89 89
- 0.99 1 2 cbr 1000 ------- 2 1.0 3.1 89 89
r 0.994 1 2 cbr 1000 ------- 2 1.0 3.1 88 88
+ 0.994 2 3 cbr 1000 ------- 2 1.0 3.1 88 88
- 0.994 2 3 cbr 1000 ------- 2 1.0 3.1 88 88
r 0.998706 2 3 cbr 1000 ------- 2 1.0 3.1 86 86
+ 1 0 2 tcp 40 ------- 1 0.0 3.0 0 90
- 1 0 2 tcp 40 ------- 1 0.0 3.0 0 90
+ 1 1 2 cbr 1000 ------- 2 1.0 3.1 90 91
- 1 1 2 cbr 1000 ------- 2 1.0 3.1 90 91
r 1.004 1 2 cbr 1000 ------- 2 1.0 3.1 89 89
+ 1.004 2 3 cbr 1000 ------- 2 1.0 3.1 89 89
- 1.004 2 3 cbr 1000 ------- 2 1.0 3.1 89 89
r 1.008706 2 3 cbr 1000 ------- 2 1.0 3.1 87 87
+ 1.01 1 2 cbr 1000 ------- 2 1.0 3.1 91 92
- 1.01 1 2 cbr 1000 ------- 2 1.0 3.1 91 92
r 1.01016 0 2 tcp 40 ------- 1 0.0 3.0 0 90
+ 1.01016 2 3 tcp 40 ------- 1 0.0 3.0 0 90
- 1.01016 2 3 tcp 40 ------- 1 0.0 3.0 0 90
r 1.014 1 2 cbr 1000 ------- 2 1.0 3.1 90 91
+ 1.014 2 3 cbr 1000 ------- 2 1.0 3.1 90 91
- 1.014 2 3 cbr 1000 ------- 2 1.0 3.1 90 91
r 1.018706 2 3 cbr 1000 ------- 2 1.0 3.1 88 88
+ 1.02 1 2 cbr 1000 ------- 2 1.0 3.1 92 93
- 1.02 1 2 cbr 1000 ------- 2 1.0 3.1 92 93
r 1.024 1 2 cbr 1000 ------- 2 1.0 3.1 91 92
+ 1.024 2 3 cbr 1000 ------- 2 1.0 3.1 91 92
- 1.024 2 3 cbr 1000 ------- 2 1.0 3.1 91 92
r 1.028706 2 3 cbr 1000 ------- 2 1.0 3.1 89 89
+ 1.03 1 2 cbr 1000 ------- 2 1.0 3.1 93 94
- 1.03 1 2 cbr 1000 ------- 2 1.0 3.1 93 94
r 1.030348 2 3 tcp 40 ------- 1 0.0 3.0 0 90
+ 1.030348 3 2 ack 40 ------- 1 3.0 0.0 0 95
- 1.030348 3 2 ack 40 ------- 1 3.0 0.0 0 95
r 1.034 1 2 cbr 1000 ------- 2 1.0 3.1 92 93
+ 1.034 2 3 cbr 1000 ------- 2 1.0 3.1 92 93
- 1.034 2 3 cbr 1000 ------- 2 1.0 3.1 92 93
r 1.038706 2 3 cbr 1000 ------- 2 1.0 3.1 90 91
+ 1.04 1 2 cbr 1000 ------- 2 1.0 3.1 94 96
- 1.04 1 2 cbr 1000 ------- 2 1.0 3.1 94 96
r 1.044 1 2 cbr 1000 ------- 2 1.0 3.1 93 94
+ 1.044 2 3 cbr 1000 ------- 2 1.0 3.1 93 94
- 1.044 2 3 cbr 1000 ------- 2 1.0 3.1 93 94
r 1.048706 2 3 cbr 1000 ------- 2 1.0 3.1 91 92
+ 1.05 1 2 cbr 1000 ------- 2 1.0 3.1 95 97
- 1.05 1 2 cbr 1000 ------- 2 1.0 3.1 95 97
r 1.050536 3 2 ack 40 ------- 1 3.0 0.0 0 95
+ 1.050536 2 0 ack 40 ------- 1 3.0 0.0 0 95
- 1.050536 2 0 ack 40 ------- 1 3.0 0.0 0 95
r 1.054 1 2 cbr 1000 ------- 2 1.0 3.1 94 96
+ 1.054 2 3 cbr 1000 ------- 2 1.0 3.1 94 96
- 1.054 2 3 cbr 1000 ------- 2 1.0 3.1 94 96
r 1.058706 2 3 cbr 1000 ------- 2 1.0 3.1 92 93
+ 1.06 1 2 cbr 1000 ------- 2 1.0 3.1 96 98
- 1.06 1 2 cbr 1000 ------- 2 1.0 3.1 96 98
r 1.060696 2 0 ack 40 ------- 1 3.0 0.0 0 95
+ 1.060696 0 2 tcp 1040 ------- 1 0.0 3.0 1 99
- 1.060696 0 2 tcp 1040 ------- 1 0.0 3.0 1 99
+ 1.060696 0 2 tcp 1040 ------- 1 0.0 3.0 2 100
r 1.064 1 2 cbr 1000 ------- 2 1.0 3.1 95 97
+ 1.064 2 3 cbr 1000 ------- 2 1.0 3.1 95 97
- 1.064 2 3 cbr 1000 ------- 2 1.0 3.1 95 97
- 1.064856 0 2 tcp 1040 ------- 1 0.0 3.0 2 100
r 1.068706 2 3 cbr 1000 ------- 2 1.0 3.1 93 94
+ 1.07 1 2 cbr 1000 ------- 2 1.0 3.1 97 101
- 1.07 1 2 cbr 1000 ------- 2 1.0 3.1 97 101
r 1.074 1 2 cbr 1000 ------- 2 1.0 3.1 96 98
+ 1.074 2 3 cbr 1000 ------- 2 1.0 3.1 96 98
- 1.074 2 3 cbr 1000 ------- 2 1.0 3.1 96 98
r 1.074856 0 2 tcp 1040 ------- 1 0.0 3.0 1 99
+ 1.074856 2 3 tcp 1040 ------- 1 0.0 3.0 1 99
r 1.078706 2 3 cbr 1000 ------- 2 1.0 3.1 94 96
- 1.078706 2 3 tcp 1040 ------- 1 0.0 3.0 1 99
r 1.079016 0 2 tcp 1040 ------- 1 0.0 3.0 2 100
+ 1.079016 2 3 tcp 1040 ------- 1 0.0 3.0 2 100
+ 1.08 1 2 cbr 1000 ------- 2 1.0 3.1 98 102
- 1.08 1 2 cbr 1000 ------- 2 1.0 3.1 98 102
- 1.0836 2 3 tcp 1040 ------- 1 0.0 3.0 2 100
r 1.084 1 2 cbr 1000 ------- 2 1.0 3.1 97 101
+ 1.084 2 3 cbr 1000 ------- 2 1.0 3.1 97 101
- 1.088494 2 3 cbr 1000 ------- 2 1.0 3.1 97 101
r 1.088706 2 3 cbr 1000 ------- 2 1.0 3.1 95 97
+ 1.09 1 2 cbr 1000 ------- 2 1.0 3.1 99 103
- 1.09 1 2 cbr 1000 ------- 2 1.0 3.1 99 103
r 1.094 1 2 cbr 1000 ------- 2 1.0 3.1 98 102
+ 1.094 2 3 cbr 1000 ------- 2 1.0 3.1 98 102
- 1.094 2 3 cbr 1000 ------- 2 1.0 3.1 98 102
r 1.098706 2 3 cbr 1000 ------- 2 1.0 3.1 96 98
+ 1.1 1 2 cbr 1000 ------- 2 1.0 3.1 100 104
- 1.1 1 2 cbr 1000 ------- 2 1.0 3.1 100 104
r 1.1036 2 3 tcp 1040 ------- 1 0.0 3.0 1 99
+ 1.1036 3 2 ack 40 ------- 1 3.0 0.0 1 105
- 1.1036 3 2 ack 40 ------- 1 3.0 0.0 1 105
r 1.104 1 2 cbr 1000 ------- 2 1.0 3.1 99 103
+ 1.104 2 3 cbr 1000 ------- 2 1.0 3.1 99 103
- 1.104 2 3 cbr 1000 ------- 2 1.0 3.1 99 103
r 1.108494 2 3 tcp 1040 ------- 1 0.0 3.0 2 100
+ 1.108494 3 2 ack 40 ------- 1 3.0 0.0 2 106
- 1.108494 3 2 ack 40 ------- 1 3.0 0.0 2 106
+ 1.11 1 2 cbr 1000 ------- 2 1.0 3.1 101 107
- 1.11 1 2 cbr 1000 ------- 2 1.0 3.1 101 107
r 1.1132 2 3 cbr 1000 ------- 2 1.0 3.1 97 101
r 1.114 1 2 cbr 1000 ------- 2 1.0 3.1 100 104
+ 1.114 2 3 cbr 1000 ------- 2 1.0 3.1 100 104
- 1.114 2 3 cbr 1000 ------- 2 1.0 3.1 100 104
r 1.118706 2 3 cbr 1000 ------- 2 1.0 3.1 98 102
+ 1.12 1 2 cbr 1000 ------- 2 1.0 3.1 102 108
- 1.12 1 2 cbr 1000 ------- 2 1.0 3.1 102 108
r 1.123788 3 2 ack 40 ------- 1 3.0 0.0 1 105
+ 1.123788 2 0 ack 40 ------- 1 3.0 0.0 1 105
- 1.123788 2 0 ack 40 ------- 1 3.0 0.0 1 105
r 1.124 1 2 cbr 1000 ------- 2 1.0 3.1 101 107
+ 1.124 2 3 cbr 1000 ------- 2 1.0 3.1 101 107
- 1.124 2 3 cbr 1000 ------- 2 1.0 3.1 101 107
r 1.128682 3 2 ack 40 ------- 1 3.0 0.0 2 106
+ 1.128682 2 0 ack 40 ------- 1 3.0 0.0 2 106
- 1.128682 2 0 ack 40 ------- 1 3.0 0.0 2 106
r 1.128706 2 3 cbr 1000 ------- 2 1.0 3.1 99 103
+ 1.13 1 2 cbr 1000 ------- 2 1.0 3.1 103 109
- 1.13 1 2 cbr 1000 ------- 2 1.0 3.1 103 109
r 1.133948 2 0 ack 40 ------- 1 3.0 0.0 1 105
+ 1.133948 0 2 tcp 1040 ------- 1 0.0 3.0 3 110
- 1.133948 0 2 tcp 1040 ------- 1 0.0 3.0 3 110
+ 1.133948 0 2 tcp 1040 ------- 1 0.0 3.0 4 111
r 1.134 1 2 cbr 1000 ------- 2 1.0 3.1 102 108
+ 1.134 2 3 cbr 1000 ------- 2 1.0 3.1 102 108
- 1.134 2 3 cbr 1000 ------- 2 1.0 3.1 102 108
- 1.138108 0 2 tcp 1040 ------- 1 0.0 3.0 4 111
r 1.138706 2 3 cbr 1000 ------- 2 1.0 3.1 100 104
r 1.138842 2 0 ack 40 ------- 1 3.0 0.0 2 106
+ 1.138842 0 2 tcp 1040 ------- 1 0.0 3.0 5 112
+ 1.138842 0 2 tcp 1040 ------- 1 0.0 3.0 6 113
+ 1.14 1 2 cbr 1000 ------- 2 1.0 3.1 104 114
- 1.14 1 2 cbr 1000 ------- 2 1.0 3.1 104 114
- 1.142268 0 2 tcp 1040 ------- 1 0.0 3.0 5 112
r 1.144 1 2 cbr 1000 ------- 2 1.0 3.1 103 109
+ 1.144 2 3 cbr 1000 ------- 2 1.0 3.1 103 109